[
  {
    "atomic_number": 1,
    "symbol": "H",
    "name": "Hydrogen",
    "description": "The lightest and most abundant element in the universe, essential for life and energy production.",
    "atomic_mass": 1.008,
    "block": "s",
    "metallic_character": "Non-metal",
    "physical_state": "Gas",
    "discovery_year": 1766,
    "discovered_by": "Henry Cavendish",
    "melting_point": -259.16,
    "boiling_point": -252.87,
    "ionic_forms": ["H+", "H-"],
    "isotopes": ["Protium", "Deuterium", "Tritium"],
    "category": "Reactive nonmetal",
    "group": 1,
    "period": 1,
    "electron_configuration": "1s1"
  },
  {
    "atomic_number": 2,
    "symbol": "He",
    "name": "Helium",
    "description": "Noble gas, second most abundant element in universe, used in balloons and cooling applications.",
    "atomic_mass": 4.003,
    "block": "s",
    "metallic_character": "Noble gas",
    "physical_state": "Gas",
    "discovery_year": 1868,
    "discovered_by": "Pierre Janssen",
    "melting_point": -272.2,
    "boiling_point": -268.93,
    "ionic_forms": ["None"],
    "isotopes": ["He-3", "He-4"],
    "category": "Noble gas",
    "group": 18,
    "period": 1,
    "electron_configuration": "1s2"
  },
  {
    "atomic_number": 3,
    "symbol": "Li",
    "name": "Lithium",
    "description": "Lightest metal, used in batteries and psychiatric medication.",
    "atomic_mass": 6.941,
    "block": "s",
    "metallic_character": "Alkali metal",
    "physical_state": "Solid",
    "discovery_year": 1817,
    "discovered_by": "Johan August Arfwedson",
    "melting_point": 180.5,
    "boiling_point": 1342,
    "ionic_forms": ["Li+"],
    "isotopes": ["Li-6", "Li-7"],
    "category": "Alkali metal",
    "group": 1,
    "period": 2,
    "electron_configuration": "[He] 2s1"
  },
  {
    "atomic_number": 4,
    "symbol": "Be",
    "name": "Beryllium",
    "description": "Light, strong metal used in aerospace and nuclear applications.",
    "atomic_mass": 9.012,
    "block": "s",
    "metallic_character": "Alkaline earth metal",
    "physical_state": "Solid",
    "discovery_year": 1798,
    "discovered_by": "Louis-Nicolas Vauquelin",
    "melting_point": 1287,
    "boiling_point": 2469,
    "ionic_forms": ["Be2+"],
    "isotopes": ["Be-9"],
    "category": "Alkaline earth metal",
    "group": 2,
    "period": 2,
    "electron_configuration": "[He] 2s2"
  },
  {
    "atomic_number": 5,
    "symbol": "B",
    "name": "Boron",
    "description": "Metalloid used in glass, ceramics, and as a neutron absorber.",
    "atomic_mass": 10.811,
    "block": "p",
    "metallic_character": "Metalloid",
    "physical_state": "Solid",
    "discovery_year": 1808,
    "discovered_by": "Joseph Louis Gay-Lussac",
    "melting_point": 2075,
    "boiling_point": 4000,
    "ionic_forms": ["B3+"],
    "isotopes": ["B-10", "B-11"],
    "category": "Metalloid",
    "group": 13,
    "period": 2,
    "electron_configuration": "[He] 2s2 2p1"
  },
  {
    "atomic_number": 6,
    "symbol": "C",
    "name": "Carbon",
    "description": "Essential element for all life, forms millions of compounds.",
    "atomic_mass": 12.011,
    "block": "p",
    "metallic_character": "Non-metal",
    "physical_state": "Solid",
    "discovery_year": "Ancient",
    "discovered_by": "Ancient civilizations",
    "melting_point": 3550,
    "boiling_point": 4027,
    "ionic_forms": ["C4-", "C4+"],
    "isotopes": ["C-12", "C-13", "C-14"],
    "category": "Reactive nonmetal",
    "group": 14,
    "period": 2,
    "electron_configuration": "[He] 2s2 2p2"
  },
  {
    "atomic_number": 7,
    "symbol": "N",
    "name": "Nitrogen",
    "description": "Makes up 78% of Earth's atmosphere, essential for proteins and DNA.",
    "atomic_mass": 14.007,
    "block": "p",
    "metallic_character": "Non-metal",
    "physical_state": "Gas",
    "discovery_year": 1772,
    "discovered_by": "Daniel Rutherford",
    "melting_point": -210.0,
    "boiling_point": -195.79,
    "ionic_forms": ["N3-", "N3+", "N5+"],
    "isotopes": ["N-14", "N-15"],
    "category": "Reactive nonmetal",
    "group": 15,
    "period": 2,
    "electron_configuration": "[He] 2s2 2p3"
  },
  {
    "atomic_number": 8,
    "symbol": "O",
    "name": "Oxygen",
    "description": "Essential for respiration and combustion, most abundant element in Earth's crust.",
    "atomic_mass": 15.999,
    "block": "p",
    "metallic_character": "Non-metal",
    "physical_state": "Gas",
    "discovery_year": 1774,
    "discovered_by": "Joseph Priestley",
    "melting_point": -218.79,
    "boiling_point": -182.96,
    "ionic_forms": ["O2-"],
    "isotopes": ["O-16", "O-17", "O-18"],
    "category": "Reactive nonmetal",
    "group": 16,
    "period": 2,
    "electron_configuration": "[He] 2s2 2p4"
  },
  {
    "atomic_number": 9,
    "symbol": "F",
    "name": "Fluorine",
    "description": "Most electronegative element, used in toothpaste and Teflon.",
    "atomic_mass": 18.998,
    "block": "p",
    "metallic_character": "Halogen",
    "physical_state": "Gas",
    "discovery_year": 1886,
    "discovered_by": "Henri Moissan",
    "melting_point": -219.67,
    "boiling_point": -188.11,
    "ionic_forms": ["F-"],
    "isotopes": ["F-19"],
    "category": "Halogen",
    "group": 17,
    "period": 2,
    "electron_configuration": "[He] 2s2 2p5"
  },
  {
    "atomic_number": 10,
    "symbol": "Ne",
    "name": "Neon",
    "description": "Noble gas used in advertising signs and lighting.",
    "atomic_mass": 20.180,
    "block": "p",
    "metallic_character": "Noble gas",
    "physical_state": "Gas",
    "discovery_year": 1898,
    "discovered_by": "William Ramsay",
    "melting_point": -248.59,
    "boiling_point": -246.08,
    "ionic_forms": ["None"],
    "isotopes": ["Ne-20", "Ne-21", "Ne-22"],
    "category": "Noble gas",
    "group": 18,
    "period": 2,
    "electron_configuration": "[He] 2s2 2p6"
  },
  {
    "atomic_number": 11,
    "symbol": "Na",
    "name": "Sodium",
    "description": "Highly reactive alkali metal, essential for nerve function.",
    "atomic_mass": 22.990,
    "block": "s",
    "metallic_character": "Alkali metal",
    "physical_state": "Solid",
    "discovery_year": 1807,
    "discovered_by": "Humphry Davy",
    "melting_point": 97.72,
    "boiling_point": 883,
    "ionic_forms": ["Na+"],
    "isotopes": ["Na-23"],
    "category": "Alkali metal",
    "group": 1,
    "period": 3,
    "electron_configuration": "[Ne] 3s1"
  },
  {
    "atomic_number": 12,
    "symbol": "Mg",
    "name": "Magnesium",
    "description": "Light metal used in alloys and essential for chlorophyll.",
    "atomic_mass": 24.305,
    "block": "s",
    "metallic_character": "Alkaline earth metal",
    "physical_state": "Solid",
    "discovery_year": 1755,
    "discovered_by": "Joseph Black",
    "melting_point": 650,
    "boiling_point": 1090,
    "ionic_forms": ["Mg2+"],
    "isotopes": ["Mg-24", "Mg-25", "Mg-26"],
    "category": "Alkaline earth metal",
    "group": 2,
    "period": 3,
    "electron_configuration": "[Ne] 3s2"
  },
  {
    "atomic_number": 13,
    "symbol": "Al",
    "name": "Aluminum",
    "description": "Lightweight, corrosion-resistant metal used in aerospace and packaging.",
    "atomic_mass": 26.982,
    "block": "p",
    "metallic_character": "Post-transition metal",
    "physical_state": "Solid",
    "discovery_year": 1825,
    "discovered_by": "Hans Christian Oersted",
    "melting_point": 660.32,
    "boiling_point": 2519,
    "ionic_forms": ["Al3+"],
    "isotopes": ["Al-27"],
    "category": "Post-transition metal",
    "group": 13,
    "period": 3,
    "electron_configuration": "[Ne] 3s2 3p1"
  },
  {
    "atomic_number": 14,
    "symbol": "Si",
    "name": "Silicon",
    "description": "Metalloid essential for electronics and computer chips.",
    "atomic_mass": 28.086,
    "block": "p",
    "metallic_character": "Metalloid",
    "physical_state": "Solid",
    "discovery_year": 1824,
    "discovered_by": "Jons Jakob Berzelius",
    "melting_point": 1414,
    "boiling_point": 3265,
    "ionic_forms": ["Si4+", "Si4-"],
    "isotopes": ["Si-28", "Si-29", "Si-30"],
    "category": "Metalloid",
    "group": 14,
    "period": 3,
    "electron_configuration": "[Ne] 3s2 3p2"
  },
  {
    "atomic_number": 15,
    "symbol": "P",
    "name": "Phosphorus",
    "description": "Essential for DNA, RNA, and ATP in all living organisms.",
    "atomic_mass": 30.974,
    "block": "p",
    "metallic_character": "Non-metal",
    "physical_state": "Solid",
    "discovery_year": 1669,
    "discovered_by": "Hennig Brand",
    "melting_point": 44.15,
    "boiling_point": 280.5,
    "ionic_forms": ["P3-", "P3+", "P5+"],
    "isotopes": ["P-31"],
    "category": "Reactive nonmetal",
    "group": 15,
    "period": 3,
    "electron_configuration": "[Ne] 3s2 3p3"
  },
  {
    "atomic_number": 16,
    "symbol": "S",
    "name": "Sulfur",
    "description": "Non-metal used in gunpowder, matches, and essential for proteins.",
    "atomic_mass": 32.065,
    "block": "p",
    "metallic_character": "Non-metal",
    "physical_state": "Solid",
    "discovery_year": "Ancient",
    "discovered_by": "Ancient civilizations",
    "melting_point": 115.21,
    "boiling_point": 444.61,
    "ionic_forms": ["S2-", "S4+", "S6+"],
    "isotopes": ["S-32", "S-33", "S-34", "S-36"],
    "category": "Reactive nonmetal",
    "group": 16,
    "period": 3,
    "electron_configuration": "[Ne] 3s2 3p4"
  },
  {
    "atomic_number": 17,
    "symbol": "Cl",
    "name": "Chlorine",
    "description": "Halogen used for water purification and in bleach.",
    "atomic_mass": 35.453,
    "block": "p",
    "metallic_character": "Halogen",
    "physical_state": "Gas",
    "discovery_year": 1774,
    "discovered_by": "Carl Wilhelm Scheele",
    "melting_point": -101.5,
    "boiling_point": -34.04,
    "ionic_forms": ["Cl-", "Cl+", "Cl3+", "Cl5+", "Cl7+"],
    "isotopes": ["Cl-35", "Cl-37"],
    "category": "Halogen",
    "group": 17,
    "period": 3,
    "electron_configuration": "[Ne] 3s2 3p5"
  },
  {
    "atomic_number": 18,
    "symbol": "Ar",
    "name": "Argon",
    "description": "Noble gas used in welding and light bulbs.",
    "atomic_mass": 39.948,
    "block": "p",
    "metallic_character": "Noble gas",
    "physical_state": "Gas",
    "discovery_year": 1894,
    "discovered_by": "Lord Rayleigh",
    "melting_point": -189.35,
    "boiling_point": -185.85,
    "ionic_forms": ["None"],
    "isotopes": ["Ar-36", "Ar-38", "Ar-40"],
    "category": "Noble gas",
    "group": 18,
    "period": 3,
    "electron_configuration": "[Ne] 3s2 3p6"
  },
  {
    "atomic_number": 19,
    "symbol": "K",
    "name": "Potassium",
    "description": "Essential alkali metal for nerve and muscle function.",
    "atomic_mass": 39.098,
    "block": "s",
    "metallic_character": "Alkali metal",
    "physical_state": "Solid",
    "discovery_year": 1807,
    "discovered_by": "Humphry Davy",
    "melting_point": 63.5,
    "boiling_point": 759,
    "ionic_forms": ["K+"],
    "isotopes": ["K-39", "K-40", "K-41"],
    "category": "Alkali metal",
    "group": 1,
    "period": 4,
    "electron_configuration": "[Ar] 4s1"
  },
  {
    "atomic_number": 20,
    "symbol": "Ca",
    "name": "Calcium",
    "description": "Essential for bones and teeth, alkaline earth metal.",
    "atomic_mass": 40.078,
    "block": "s",
    "metallic_character": "Alkaline earth metal",
    "physical_state": "Solid",
    "discovery_year": 1808,
    "discovered_by": "Humphry Davy",
    "melting_point": 842,
    "boiling_point": 1484,
    "ionic_forms": ["Ca2+"],
    "isotopes": ["Ca-40", "Ca-42", "Ca-43", "Ca-44", "Ca-46", "Ca-48"],
    "category": "Alkaline earth metal",
    "group": 2,
    "period": 4,
    "electron_configuration": "[Ar] 4s2"
  }
]
