[
  {
    "atomic_number": 1,
    "symbol": "H",
    "name": "Hydrogen",
    "description": "Hydrogen is the lightest and most abundant element in the universe. It's a colorless, odorless, and highly flammable gas that plays a crucial role in water formation and energy production.",
    "atomic_mass": 1.008,
    "block": "s",
    "metallic_character": "Non-metal",
    "physical_state": "Gas",
    "discovery_year": 1766,
    "discovered_by": "Henry Cavendish",
    "melting_point": -259.16,
    "boiling_point": -252.87,
    "ionic_forms": ["H+", "H-"],
    "isotopes": ["Protium (1H)", "Deuterium (2H)", "Tritium (3H)"],
    "category": "Reactive nonmetal",
    "group": 1,
    "period": 1,
    "electron_configuration": "1s^1"
  },
  {
    "atomic_number": 2,
    "symbol": "He",
    "name": "Helium",
    "description": "Helium is a noble gas that is colorless, odorless, tasteless, and non-toxic. It's the second most abundant element in the universe and has the lowest boiling point of all elements.",
    "atomic_mass": 4.003,
    "block": "s",
    "metallic_character": "Noble gas",
    "physical_state": "Gas",
    "discovery_year": 1868,
    "discovered_by": "Pierre Janssen, Norman Lockyer",
    "melting_point": -272.2,
    "boiling_point": -268.93,
    "ionic_forms": ["He does not form ions"],
    "isotopes": ["Helium-3 (3He)", "Helium-4 (4He)"],
    "category": "Noble gas",
    "group": 18,
    "period": 1,
    "electron_configuration": "1s^2"
  },
  {
    "atomic_number": 3,
    "symbol": "Li",
    "name": "Lithium",
    "description": "Lithium is the lightest metal and the least dense solid element. It's highly reactive and flammable, and is used in rechargeable batteries and psychiatric medication.",
    "atomic_mass": 6.941,
    "block": "s",
    "metallic_character": "Alkali metal",
    "physical_state": "Solid",
    "discovery_year": 1817,
    "discovered_by": "Johan August Arfwedson",
    "melting_point": 180.5,
    "boiling_point": 1342,
    "ionic_forms": ["Li+"],
    "isotopes": ["Lithium-6 (6Li)", "Lithium-7 (7Li)"],
    "category": "Alkali metal",
    "group": 1,
    "period": 2,
    "electron_configuration": "[He] 2s^1"
  },
  {
    "atomic_number": 4,
    "symbol": "Be",
    "name": "Beryllium",
    "description": "Beryllium is a lightweight, steel-gray alkaline earth metal. It's used in aerospace applications and nuclear reactors due to its low density and high strength.",
    "atomic_mass": 9.012,
    "block": "s",
    "metallic_character": "Alkaline earth metal",
    "physical_state": "Solid",
    "discovery_year": 1798,
    "discovered_by": "Louis-Nicolas Vauquelin",
    "melting_point": 1287,
    "boiling_point": 2468,
    "ionic_forms": ["Be2+"],
    "isotopes": ["Beryllium-9 (9Be)"],
    "category": "Alkaline earth metal",
    "group": 2,
    "period": 2,
    "electron_configuration": "[He] 2s^2"
  },
  {
    "atomic_number": 5,
    "symbol": "B",
    "name": "Boron",
    "description": "Boron is a metalloid that is essential for plant growth and is used in glass manufacturing, ceramics, and as a neutron absorber in nuclear reactors.",
    "atomic_mass": 10.811,
    "block": "p",
    "metallic_character": "Metalloid",
    "physical_state": "Solid",
    "discovery_year": 1808,
    "discovered_by": "Joseph Louis Gay-Lussac, Louis Jacques Thenard",
    "melting_point": 2076,
    "boiling_point": 4000,
    "ionic_forms": ["B3+"],
    "isotopes": ["Boron-10 (10B)", "Boron-11 (11B)"],
    "category": "Metalloid",
    "group": 13,
    "period": 2,
    "electron_configuration": "[He] 2s^2 2p^1"
  },
  {
    "atomic_number": 6,
    "symbol": "C",
    "name": "Carbon",
    "description": "Carbon is the basis of all organic chemistry and life on Earth. It can form various allotropes including diamond, graphite, and fullerenes.",
    "atomic_mass": 12.011,
    "block": "p",
    "metallic_character": "Non-metal",
    "physical_state": "Solid",
    "discovery_year": "Ancient",
    "discovered_by": "Known to ancients",
    "melting_point": 3550,
    "boiling_point": 4027,
    "ionic_forms": ["C4+", "C4-"],
    "isotopes": ["Carbon-12 (12C)", "Carbon-13 (13C)", "Carbon-14 (14C)"],
    "category": "Reactive nonmetal",
    "group": 14,
    "period": 2,
    "electron_configuration": "[He] 2s^2 2p^2"
  },
  {
    "atomic_number": 7,
    "symbol": "N",
    "name": "Nitrogen",
    "description": "Nitrogen makes up about 78% of Earth's atmosphere. It's essential for all living organisms as a component of amino acids, proteins, and nucleic acids.",
    "atomic_mass": 14.007,
    "block": "p",
    "metallic_character": "Non-metal",
    "physical_state": "Gas",
    "discovery_year": 1772,
    "discovered_by": "Daniel Rutherford",
    "melting_point": -210.01,
    "boiling_point": -195.79,
    "ionic_forms": ["N3-", "N3+", "N5+"],
    "isotopes": ["Nitrogen-14 (14N)", "Nitrogen-15 (15N)"],
    "category": "Reactive nonmetal",
    "group": 15,
    "period": 2,
    "electron_configuration": "[He] 2s^2 2p^3"
  },
  {
    "atomic_number": 8,
    "symbol": "O",
    "name": "Oxygen",
    "description": "Oxygen is essential for most life forms and makes up about 21% of Earth's atmosphere. It's highly reactive and forms compounds with almost all other elements.",
    "atomic_mass": 15.999,
    "block": "p",
    "metallic_character": "Non-metal",
    "physical_state": "Gas",
    "discovery_year": 1774,
    "discovered_by": "Joseph Priestley, Carl Wilhelm Scheele",
    "melting_point": -218.79,
    "boiling_point": -182.96,
    "ionic_forms": ["O2-"],
    "isotopes": ["Oxygen-16 (16O)", "Oxygen-17 (17O)", "Oxygen-18 (18O)"],
    "category": "Reactive nonmetal",
    "group": 16,
    "period": 2,
    "electron_configuration": "[He] 2s^2 2p^4"
  },
  {
    "atomic_number": 9,
    "symbol": "F",
    "name": "Fluorine",
    "description": "Fluorine is the most electronegative and reactive of all elements. It's used in toothpaste, non-stick coatings, and refrigerants.",
    "atomic_mass": 18.998,
    "block": "p",
    "metallic_character": "Halogen",
    "physical_state": "Gas",
    "discovery_year": 1886,
    "discovered_by": "Henri Moissan",
    "melting_point": -219.67,
    "boiling_point": -188.11,
    "ionic_forms": ["F-"],
    "isotopes": ["Fluorine-19 (19F)"],
    "category": "Reactive nonmetal",
    "group": 17,
    "period": 2,
    "electron_configuration": "[He] 2s^2 2p^5"
  },
  {
    "atomic_number": 10,
    "symbol": "Ne",
    "name": "Neon",
    "description": "Neon is a noble gas that produces a distinctive orange-red glow when used in electrical discharge tubes, commonly seen in neon signs.",
    "atomic_mass": 20.180,
    "block": "p",
    "metallic_character": "Noble gas",
    "physical_state": "Gas",
    "discovery_year": 1898,
    "discovered_by": "William Ramsay, Morris Travers",
    "melting_point": -248.59,
    "boiling_point": -246.08,
    "ionic_forms": ["Ne does not form ions"],
    "isotopes": ["Neon-20 (20Ne)", "Neon-21 (21Ne)", "Neon-22 (22Ne)"],
    "category": "Noble gas",
    "group": 18,
    "period": 2,
    "electron_configuration": "[He] 2s^2 2p^6"
  },
  {
    "atomic_number": 11,
    "symbol": "Na",
    "name": "Sodium",
    "description": "Sodium is a highly reactive alkali metal that's essential for life. It's commonly found in salt (NaCl) and is crucial for nerve function and fluid balance.",
    "atomic_mass": 22.990,
    "block": "s",
    "metallic_character": "Alkali metal",
    "physical_state": "Solid",
    "discovery_year": 1807,
    "discovered_by": "Humphry Davy",
    "melting_point": 97.79,
    "boiling_point": 883,
    "ionic_forms": ["Na+"],
    "isotopes": ["Sodium-23 (23Na)"],
    "category": "Alkali metal",
    "group": 1,
    "period": 3,
    "electron_configuration": "[Ne] 3s^1"
  },
  {
    "atomic_number": 12,
    "symbol": "Mg",
    "name": "Magnesium",
    "description": "Magnesium is a lightweight, silvery-white alkaline earth metal. It's essential for life and is used in alloys, fireworks, and as a dietary supplement.",
    "atomic_mass": 24.305,
    "block": "s",
    "metallic_character": "Alkaline earth metal",
    "physical_state": "Solid",
    "discovery_year": 1755,
    "discovered_by": "Joseph Black",
    "melting_point": 650,
    "boiling_point": 1090,
    "ionic_forms": ["Mg2+"],
    "isotopes": ["Magnesium-24 (24Mg)", "Magnesium-25 (25Mg)", "Magnesium-26 (26Mg)"],
    "category": "Alkaline earth metal",
    "group": 2,
    "period": 3,
    "electron_configuration": "[Ne] 3s^2"
  },
  {
    "atomic_number": 13,
    "symbol": "Al",
    "name": "Aluminum",
    "description": "Aluminum is the most abundant metal in Earth's crust. It's lightweight, corrosion-resistant, and widely used in construction, transportation, and packaging.",
    "atomic_mass": 26.982,
    "block": "p",
    "metallic_character": "Post-transition metal",
    "physical_state": "Solid",
    "discovery_year": 1825,
    "discovered_by": "Hans Christian Orsted",
    "melting_point": 660.32,
    "boiling_point": 2519,
    "ionic_forms": ["Al3+"],
    "isotopes": ["Aluminum-27 (27Al)"],
    "category": "Post-transition metal",
    "group": 13,
    "period": 3,
    "electron_configuration": "[Ne] 3s^2 3p^1"
  },
  {
    "atomic_number": 14,
    "symbol": "Si",
    "name": "Silicon",
    "description": "Silicon is the second most abundant element in Earth's crust. It's essential for the semiconductor industry and is used in glass, ceramics, and computer chips.",
    "atomic_mass": 28.086,
    "block": "p",
    "metallic_character": "Metalloid",
    "physical_state": "Solid",
    "discovery_year": 1824,
    "discovered_by": "Jons Jacob Berzelius",
    "melting_point": 1414,
    "boiling_point": 3265,
    "ionic_forms": ["Si4+", "Si4-"],
    "isotopes": ["Silicon-28 (28Si)", "Silicon-29 (29Si)", "Silicon-30 (30Si)"],
    "category": "Metalloid",
    "group": 14,
    "period": 3,
    "electron_configuration": "[Ne] 3s^2 3p^2"
  },
  {
    "atomic_number": 15,
    "symbol": "P",
    "name": "Phosphorus",
    "description": "Phosphorus is essential for life, found in DNA, RNA, and ATP. It exists in several allotropes, including white phosphorus, which is highly reactive and toxic.",
    "atomic_mass": 30.974,
    "block": "p",
    "metallic_character": "Non-metal",
    "physical_state": "Solid",
    "discovery_year": 1669,
    "discovered_by": "Hennig Brand",
    "melting_point": 44.15,
    "boiling_point": 280.5,
    "ionic_forms": ["P3-", "P3+", "P5+"],
    "isotopes": ["Phosphorus-31 (31P)"],
    "category": "Reactive nonmetal",
    "group": 15,
    "period": 3,
    "electron_configuration": "[Ne] 3s^2 3p^3"
  },
  {
    "atomic_number": 16,
    "symbol": "S",
    "name": "Sulfur",
    "description": "Sulfur is a bright yellow crystalline solid at room temperature. It's essential for life and is used in fertilizers, gunpowder, and vulcanization of rubber.",
    "atomic_mass": 32.065,
    "block": "p",
    "metallic_character": "Non-metal",
    "physical_state": "Solid",
    "discovery_year": "Ancient",
    "discovered_by": "Known to ancients",
    "melting_point": 115.21,
    "boiling_point": 444.61,
    "ionic_forms": ["S2-", "S4+", "S6+"],
    "isotopes": ["Sulfur-32 (32S)", "Sulfur-33 (33S)", "Sulfur-34 (34S)", "Sulfur-36 (36S)"],
    "category": "Reactive nonmetal",
    "group": 16,
    "period": 3,
    "electron_configuration": "[Ne] 3s^2 3p^4"
  },
  {
    "atomic_number": 17,
    "symbol": "Cl",
    "name": "Chlorine",
    "description": "Chlorine is a yellow-green gas that's highly reactive and toxic. It's used for water purification, bleaching, and as a disinfectant.",
    "atomic_mass": 35.453,
    "block": "p",
    "metallic_character": "Halogen",
    "physical_state": "Gas",
    "discovery_year": 1774,
    "discovered_by": "Carl Wilhelm Scheele",
    "melting_point": -101.5,
    "boiling_point": -34.04,
    "ionic_forms": ["Cl-", "Cl+", "Cl3+", "Cl5+", "Cl7+"],
    "isotopes": ["Chlorine-35 (35Cl)", "Chlorine-37 (37Cl)"],
    "category": "Reactive nonmetal",
    "group": 17,
    "period": 3,
    "electron_configuration": "[Ne] 3s^2 3p^5"
  },
  {
    "atomic_number": 18,
    "symbol": "Ar",
    "name": "Argon",
    "description": "Argon is a noble gas that makes up about 1% of Earth's atmosphere. It's colorless, odorless, and used in welding and as a protective atmosphere for growing silicon crystals.",
    "atomic_mass": 39.948,
    "block": "p",
    "metallic_character": "Noble gas",
    "physical_state": "Gas",
    "discovery_year": 1894,
    "discovered_by": "Lord Rayleigh, William Ramsay",
    "melting_point": -189.35,
    "boiling_point": -185.85,
    "ionic_forms": ["Ar does not form ions"],
    "isotopes": ["Argon-36 (36Ar)", "Argon-38 (38Ar)", "Argon-40 (40Ar)"],
    "category": "Noble gas",
    "group": 18,
    "period": 3,
    "electron_configuration": "[Ne] 3s^2 3p^6"
  }
]
